                         Program Version 5.0.4 -  RELEASE  -
|  1> ! RHF ENGRAD DEF2-SVP TightSCF
|  2> %elprop
|  3> Dipole False
|  4> end
|  5>
|  6> *xyz    0    1
|  7> H         0.0000000000       -0.0000000007       -0.0034650344
|  8> H         0.0000000000        0.0000000007        0.7444650344
|  9> *
| 10>
| 11>                          ****END OF INPUT****

CARTESIAN COORDINATES (ANGSTROEM)
---------------------------------
  H      0.000000   -0.000000   -0.003465
  H      0.000000    0.000000    0.744465

 Total Charge           Charge          ....    0
 Multiplicity           Mult            ....    1
 Number of Electrons    NEL             ....    2
 Basis Dimension        Dim             ....   10

ORBITAL ENERGIES
----------------

  NO   OCC          E(Eh)            E(eV)
   0   2.0000      -0.590057       -16.0563
   1   0.0000       0.195917         5.3312
   2   0.0000       0.480976        13.0880
   3   0.0000       0.955829        26.0094
   4   0.0000       1.420237        38.6466
   5   0.0000       1.420237        38.6466

MULLIKEN ATOMIC CHARGES
-----------------------
   0 H :   -0.000000
   1 H :    0.000000
Sum of atomic charges:   -0.0000000

LOEWDIN ATOMIC CHARGES
----------------------
   0 H :   -0.000000
   1 H :    0.000000

  Mayer bond orders larger than 0.100000
B(  0-H ,  1-H ) :   1.0000

FINAL SINGLE POINT ENERGY        -1.128927852814
                             ****ORCA TERMINATED NORMALLY****
TOTAL RUN TIME: 0 days 0 hours 0 minutes 0 seconds 251 msec
